HEADER
"PSFversion" "1.00"
"simulator" "spectre"
"version" "18.1.0.077"
"date" "3:06:40 PM, Sun Jun 14, 2026"
"design" "(no title)"
"analysis type" "noise"
"analysis name" "nz"
"analysis description" "Noise Analysis `nz': freq = (10 Hz -> 100 MHz)"
"xVecSorted" "ascending"
"tolerance.relative" 0.00100000
"operating point producer" "nz"
"output" "pair of nodes"
"ground" "0"
"positive output signal" "VDD0P8_PLL"
"negative output signal" "0"
TYPE
"sweep" FLOAT DOUBLE PROP(
"key" "sweep"
)
"V/sqrt(Hz)" FLOAT DOUBLE PROP(
"units" "V/sqrt(Hz)"
"key" "noise"
)
"V^2/Hz" FLOAT DOUBLE PROP(
"units" "V^2/Hz"
"key" "noise"
)
"ldo_core_pll" STRUCT(
"out" FLOAT DOUBLE PROP(
"units" "V^2/Hz"
)
"total" FLOAT DOUBLE PROP(
"units" "V^2/Hz"
)
) PROP(
"key" "inst"
"master" "ldo_core_pll"
)
"ldo_core_vco" STRUCT(
"out" FLOAT DOUBLE PROP(
"units" "V^2/Hz"
)
"total" FLOAT DOUBLE PROP(
"units" "V^2/Hz"
)
) PROP(
"key" "inst"
"master" "ldo_core_vco"
)
"vref_bias" STRUCT(
"i1u" FLOAT DOUBLE PROP(
"units" "V^2/Hz"
)
"i500" FLOAT DOUBLE PROP(
"units" "V^2/Hz"
)
"ref" FLOAT DOUBLE PROP(
"units" "V^2/Hz"
)
"total" FLOAT DOUBLE PROP(
"units" "V^2/Hz"
)
) PROP(
"key" "inst"
"master" "vref_bias"
)
SWEEP
"freq" "sweep" PROP(
"sweep_direction" 0
"units" "Hz"
"plot" 0
"grid" 3
)
TRACE
"Xdut.X_PLL" "ldo_core_pll"
"Xdut.X_VCO" "ldo_core_vco"
"Xdut.X_REF" "vref_bias"
"out" "V/sqrt(Hz)"
VALUE
"freq" 1.000000000000000e+01
"Xdut.X_PLL" (
4.000000000000000e-16
4.000000000000000e-16
)
"Xdut.X_VCO" (
0.000000000000000e+00
0.000000000000000e+00
)
"Xdut.X_REF" (
0.000000000000000e+00
0.000000000000000e+00
4.422084166143244e-15
4.422084166143244e-15
)
"out" 6.944122814397255e-08
"freq" 1.122018454301963e+01
"Xdut.X_PLL" (
4.000000000000000e-16
4.000000000000000e-16
)
"Xdut.X_VCO" (
0.000000000000000e+00
0.000000000000000e+00
)
"Xdut.X_REF" (
0.000000000000000e+00
0.000000000000000e+00
4.422084166143244e-15
4.422084166143244e-15
)
"out" 6.944122814397255e-08
"freq" 1.258925411794167e+01
"Xdut.X_PLL" (
4.000000000000000e-16
4.000000000000000e-16
)
"Xdut.X_VCO" (
0.000000000000000e+00
0.000000000000000e+00
)
"Xdut.X_REF" (
0.000000000000000e+00
0.000000000000000e+00
4.422084166143245e-15
4.422084166143245e-15
)
"out" 6.944122814397255e-08
"freq" 1.412537544622754e+01
"Xdut.X_PLL" (
3.999999999999999e-16
3.999999999999999e-16
)
"Xdut.X_VCO" (
0.000000000000000e+00
0.000000000000000e+00
)
"Xdut.X_REF" (
0.000000000000000e+00
0.000000000000000e+00
4.422084166143244e-15
4.422084166143244e-15
)
"out" 6.944122814397253e-08
"freq" 1.584893192461113e+01
"Xdut.X_PLL" (
3.999999999999999e-16
3.999999999999999e-16
)
"Xdut.X_VCO" (
0.000000000000000e+00
0.000000000000000e+00
)
"Xdut.X_REF" (
0.000000000000000e+00
0.000000000000000e+00
4.422084166143244e-15
4.422084166143244e-15
)
"out" 6.944122814397253e-08
"freq" 1.778279410038922e+01
"Xdut.X_PLL" (
3.999999999999999e-16
3.999999999999999e-16
)
"Xdut.X_VCO" (
0.000000000000000e+00
0.000000000000000e+00
)
"Xdut.X_REF" (
0.000000000000000e+00
0.000000000000000e+00
4.422084166143244e-15
4.422084166143244e-15
)
"out" 6.944122814397253e-08
"freq" 1.995262314968879e+01
"Xdut.X_PLL" (
3.999999999999999e-16
3.999999999999999e-16
)
"Xdut.X_VCO" (
0.000000000000000e+00
0.000000000000000e+00
)
"Xdut.X_REF" (
0.000000000000000e+00
0.000000000000000e+00
4.422084166143244e-15
4.422084166143244e-15
)
"out" 6.944122814397255e-08
"freq" 2.238721138568338e+01
"Xdut.X_PLL" (
4.000000000000000e-16
4.000000000000000e-16
)
"Xdut.X_VCO" (
0.000000000000000e+00
0.000000000000000e+00
)
"Xdut.X_REF" (
0.000000000000000e+00
0.000000000000000e+00
4.422084166143244e-15
4.422084166143244e-15
)
"out" 6.944122814397255e-08
"freq" 2.511886431509578e+01
"Xdut.X_PLL" (
3.999999999999998e-16
3.999999999999998e-16
)
"Xdut.X_VCO" (
0.000000000000000e+00
0.000000000000000e+00
)
"Xdut.X_REF" (
0.000000000000000e+00
0.000000000000000e+00
4.422084166143240e-15
4.422084166143240e-15
)
"out" 6.944122814397252e-08
"freq" 2.818382931264452e+01
"Xdut.X_PLL" (
3.999999999999998e-16
3.999999999999998e-16
)
"Xdut.X_VCO" (
0.000000000000000e+00
0.000000000000000e+00
)
"Xdut.X_REF" (
0.000000000000000e+00
0.000000000000000e+00
4.422084166143241e-15
4.422084166143241e-15
)
"out" 6.944122814397252e-08
"freq" 3.162277660168376e+01
"Xdut.X_PLL" (
3.999999999999998e-16
3.999999999999998e-16
)
"Xdut.X_VCO" (
0.000000000000000e+00
0.000000000000000e+00
)
"Xdut.X_REF" (
0.000000000000000e+00
0.000000000000000e+00
4.422084166143241e-15
4.422084166143241e-15
)
"out" 6.944122814397252e-08
"freq" 3.548133892335751e+01
"Xdut.X_PLL" (
3.999999999999998e-16
3.999999999999998e-16
)
"Xdut.X_VCO" (
0.000000000000000e+00
0.000000000000000e+00
)
"Xdut.X_REF" (
0.000000000000000e+00
0.000000000000000e+00
4.422084166143242e-15
4.422084166143242e-15
)
"out" 6.944122814397253e-08
"freq" 3.981071705534968e+01
"Xdut.X_PLL" (
3.999999999999997e-16
3.999999999999997e-16
)
"Xdut.X_VCO" (
0.000000000000000e+00
0.000000000000000e+00
)
"Xdut.X_REF" (
0.000000000000000e+00
0.000000000000000e+00
4.422084166143241e-15
4.422084166143241e-15
)
"out" 6.944122814397252e-08
"freq" 4.466835921509626e+01
"Xdut.X_PLL" (
3.999999999999994e-16
3.999999999999994e-16
)
"Xdut.X_VCO" (
0.000000000000000e+00
0.000000000000000e+00
)
"Xdut.X_REF" (
0.000000000000000e+00
0.000000000000000e+00
4.422084166143238e-15
4.422084166143238e-15
)
"out" 6.944122814397249e-08
"freq" 5.011872336272717e+01
"Xdut.X_PLL" (
3.999999999999994e-16
3.999999999999994e-16
)
"Xdut.X_VCO" (
0.000000000000000e+00
0.000000000000000e+00
)
"Xdut.X_REF" (
0.000000000000000e+00
0.000000000000000e+00
4.422084166143239e-15
4.422084166143239e-15
)
"out" 6.944122814397249e-08
"freq" 5.623413251903484e+01
"Xdut.X_PLL" (
3.999999999999993e-16
3.999999999999993e-16
)
"Xdut.X_VCO" (
0.000000000000000e+00
0.000000000000000e+00
)
"Xdut.X_REF" (
0.000000000000000e+00
0.000000000000000e+00
4.422084166143235e-15
4.422084166143235e-15
)
"out" 6.944122814397247e-08
"freq" 6.309573444801924e+01
"Xdut.X_PLL" (
3.999999999999991e-16
3.999999999999991e-16
)
"Xdut.X_VCO" (
0.000000000000000e+00
0.000000000000000e+00
)
"Xdut.X_REF" (
0.000000000000000e+00
0.000000000000000e+00
4.422084166143233e-15
4.422084166143233e-15
)
"out" 6.944122814397245e-08
"freq" 7.079457843841369e+01
"Xdut.X_PLL" (
3.999999999999988e-16
3.999999999999988e-16
)
"Xdut.X_VCO" (
0.000000000000000e+00
0.000000000000000e+00
)
"Xdut.X_REF" (
0.000000000000000e+00
0.000000000000000e+00
4.422084166143229e-15
4.422084166143229e-15
)
"out" 6.944122814397243e-08
"freq" 7.943282347242804e+01
"Xdut.X_PLL" (
3.999999999999984e-16
3.999999999999984e-16
)
"Xdut.X_VCO" (
0.000000000000000e+00
0.000000000000000e+00
)
"Xdut.X_REF" (
0.000000000000000e+00
0.000000000000000e+00
4.422084166143225e-15
4.422084166143225e-15
)
"out" 6.944122814397240e-08
"freq" 8.912509381337442e+01
"Xdut.X_PLL" (
3.999999999999981e-16
3.999999999999981e-16
)
"Xdut.X_VCO" (
0.000000000000000e+00
0.000000000000000e+00
)
"Xdut.X_REF" (
0.000000000000000e+00
0.000000000000000e+00
4.422084166143223e-15
4.422084166143223e-15
)
"out" 6.944122814397237e-08
"freq" 9.999999999999984e+01
"Xdut.X_PLL" (
3.999999999999976e-16
3.999999999999976e-16
)
"Xdut.X_VCO" (
0.000000000000000e+00
0.000000000000000e+00
)
"Xdut.X_REF" (
0.000000000000000e+00
0.000000000000000e+00
4.422084166143217e-15
4.422084166143217e-15
)
"out" 6.944122814397233e-08
"freq" 1.122018454301962e+02
"Xdut.X_PLL" (
3.999999999999969e-16
3.999999999999969e-16
)
"Xdut.X_VCO" (
0.000000000000000e+00
0.000000000000000e+00
)
"Xdut.X_REF" (
0.000000000000000e+00
0.000000000000000e+00
4.422084166143209e-15
4.422084166143209e-15
)
"out" 6.944122814397227e-08
"freq" 1.258925411794165e+02
"Xdut.X_PLL" (
3.999999999999961e-16
3.999999999999961e-16
)
"Xdut.X_VCO" (
0.000000000000000e+00
0.000000000000000e+00
)
"Xdut.X_REF" (
0.000000000000000e+00
0.000000000000000e+00
4.422084166143200e-15
4.422084166143200e-15
)
"out" 6.944122814397220e-08
"freq" 1.412537544622752e+02
"Xdut.X_PLL" (
3.999999999999952e-16
3.999999999999952e-16
)
"Xdut.X_VCO" (
0.000000000000000e+00
0.000000000000000e+00
)
"Xdut.X_REF" (
0.000000000000000e+00
0.000000000000000e+00
4.422084166143191e-15
4.422084166143191e-15
)
"out" 6.944122814397214e-08
"freq" 1.584893192461111e+02
"Xdut.X_PLL" (
3.999999999999938e-16
3.999999999999938e-16
)
"Xdut.X_VCO" (
0.000000000000000e+00
0.000000000000000e+00
)
"Xdut.X_REF" (
0.000000000000000e+00
0.000000000000000e+00
4.422084166143175e-15
4.422084166143175e-15
)
"out" 6.944122814397200e-08
"freq" 1.778279410038919e+02
"Xdut.X_PLL" (
3.999999999999922e-16
3.999999999999922e-16
)
"Xdut.X_VCO" (
0.000000000000000e+00
0.000000000000000e+00
)
"Xdut.X_REF" (
0.000000000000000e+00
0.000000000000000e+00
4.422084166143158e-15
4.422084166143158e-15
)
"out" 6.944122814397186e-08
"freq" 1.995262314968876e+02
"Xdut.X_PLL" (
3.999999999999901e-16
3.999999999999901e-16
)
"Xdut.X_VCO" (
0.000000000000000e+00
0.000000000000000e+00
)
"Xdut.X_REF" (
0.000000000000000e+00
0.000000000000000e+00
4.422084166143134e-15
4.422084166143134e-15
)
"out" 6.944122814397167e-08
"freq" 2.238721138568335e+02
"Xdut.X_PLL" (
3.999999999999877e-16
3.999999999999877e-16
)
"Xdut.X_VCO" (
0.000000000000000e+00
0.000000000000000e+00
)
"Xdut.X_REF" (
0.000000000000000e+00
0.000000000000000e+00
4.422084166143108e-15
4.422084166143108e-15
)
"out" 6.944122814397147e-08
"freq" 2.511886431509575e+02
"Xdut.X_PLL" (
3.999999999999846e-16
3.999999999999846e-16
)
"Xdut.X_VCO" (
0.000000000000000e+00
0.000000000000000e+00
)
"Xdut.X_REF" (
0.000000000000000e+00
0.000000000000000e+00
4.422084166143072e-15
4.422084166143072e-15
)
"out" 6.944122814397120e-08
"freq" 2.818382931264447e+02
"Xdut.X_PLL" (
3.999999999999804e-16
3.999999999999804e-16
)
"Xdut.X_VCO" (
0.000000000000000e+00
0.000000000000000e+00
)
"Xdut.X_REF" (
0.000000000000000e+00
0.000000000000000e+00
4.422084166143026e-15
4.422084166143026e-15
)
"out" 6.944122814397082e-08
"freq" 3.162277660168372e+02
"Xdut.X_PLL" (
3.999999999999753e-16
3.999999999999753e-16
)
"Xdut.X_VCO" (
0.000000000000000e+00
0.000000000000000e+00
)
"Xdut.X_REF" (
0.000000000000000e+00
0.000000000000000e+00
4.422084166142970e-15
4.422084166142970e-15
)
"out" 6.944122814397039e-08
"freq" 3.548133892335746e+02
"Xdut.X_PLL" (
3.999999999999689e-16
3.999999999999689e-16
)
"Xdut.X_VCO" (
0.000000000000000e+00
0.000000000000000e+00
)
"Xdut.X_REF" (
0.000000000000000e+00
0.000000000000000e+00
4.422084166142900e-15
4.422084166142900e-15
)
"out" 6.944122814396983e-08
"freq" 3.981071705534962e+02
"Xdut.X_PLL" (
3.999999999999610e-16
3.999999999999610e-16
)
"Xdut.X_VCO" (
0.000000000000000e+00
0.000000000000000e+00
)
"Xdut.X_REF" (
0.000000000000000e+00
0.000000000000000e+00
4.422084166142811e-15
4.422084166142811e-15
)
"out" 6.944122814396914e-08
"freq" 4.466835921509619e+02
"Xdut.X_PLL" (
3.999999999999509e-16
3.999999999999509e-16
)
"Xdut.X_VCO" (
0.000000000000000e+00
0.000000000000000e+00
)
"Xdut.X_REF" (
0.000000000000000e+00
0.000000000000000e+00
4.422084166142701e-15
4.422084166142701e-15
)
"out" 6.944122814396828e-08
"freq" 5.011872336272709e+02
"Xdut.X_PLL" (
3.999999999999381e-16
3.999999999999381e-16
)
"Xdut.X_VCO" (
0.000000000000000e+00
0.000000000000000e+00
)
"Xdut.X_REF" (
0.000000000000000e+00
0.000000000000000e+00
4.422084166142558e-15
4.422084166142558e-15
)
"out" 6.944122814396716e-08
"freq" 5.623413251903476e+02
"Xdut.X_PLL" (
3.999999999999221e-16
3.999999999999221e-16
)
"Xdut.X_VCO" (
0.000000000000000e+00
0.000000000000000e+00
)
"Xdut.X_REF" (
0.000000000000000e+00
0.000000000000000e+00
4.422084166142382e-15
4.422084166142382e-15
)
"out" 6.944122814396577e-08
"freq" 6.309573444801915e+02
"Xdut.X_PLL" (
3.999999999999018e-16
3.999999999999018e-16
)
"Xdut.X_VCO" (
0.000000000000000e+00
0.000000000000000e+00
)
"Xdut.X_REF" (
0.000000000000000e+00
0.000000000000000e+00
4.422084166142158e-15
4.422084166142158e-15
)
"out" 6.944122814396401e-08
"freq" 7.079457843841359e+02
"Xdut.X_PLL" (
3.999999999998764e-16
3.999999999998764e-16
)
"Xdut.X_VCO" (
0.000000000000000e+00
0.000000000000000e+00
)
"Xdut.X_REF" (
0.000000000000000e+00
0.000000000000000e+00
4.422084166141878e-15
4.422084166141878e-15
)
"out" 6.944122814396181e-08
"freq" 7.943282347242791e+02
"Xdut.X_PLL" (
3.999999999998443e-16
3.999999999998443e-16
)
"Xdut.X_VCO" (
0.000000000000000e+00
0.000000000000000e+00
)
"Xdut.X_REF" (
0.000000000000000e+00
0.000000000000000e+00
4.422084166141522e-15
4.422084166141522e-15
)
"out" 6.944122814395902e-08
"freq" 8.912509381337428e+02
"Xdut.X_PLL" (
3.999999999998040e-16
3.999999999998040e-16
)
"Xdut.X_VCO" (
0.000000000000000e+00
0.000000000000000e+00
)
"Xdut.X_REF" (
0.000000000000000e+00
0.000000000000000e+00
4.422084166141076e-15
4.422084166141076e-15
)
"out" 6.944122814395551e-08
"freq" 9.999999999999968e+02
"Xdut.X_PLL" (
3.999999999997533e-16
3.999999999997533e-16
)
"Xdut.X_VCO" (
0.000000000000000e+00
0.000000000000000e+00
)
"Xdut.X_REF" (
0.000000000000000e+00
0.000000000000000e+00
4.422084166140517e-15
4.422084166140517e-15
)
"out" 6.944122814395113e-08
"freq" 1.122018454301960e+03
"Xdut.X_PLL" (
3.999999999996895e-16
3.999999999996895e-16
)
"Xdut.X_VCO" (
0.000000000000000e+00
0.000000000000000e+00
)
"Xdut.X_REF" (
0.000000000000000e+00
0.000000000000000e+00
4.422084166139810e-15
4.422084166139810e-15
)
"out" 6.944122814394559e-08
"freq" 1.258925411794163e+03
"Xdut.X_PLL" (
3.999999999996090e-16
3.999999999996090e-16
)
"Xdut.X_VCO" (
0.000000000000000e+00
0.000000000000000e+00
)
"Xdut.X_REF" (
0.000000000000000e+00
0.000000000000000e+00
4.422084166138921e-15
4.422084166138921e-15
)
"out" 6.944122814393860e-08
"freq" 1.412537544622749e+03
"Xdut.X_PLL" (
3.999999999995077e-16
3.999999999995077e-16
)
"Xdut.X_VCO" (
0.000000000000000e+00
0.000000000000000e+00
)
"Xdut.X_REF" (
0.000000000000000e+00
0.000000000000000e+00
4.422084166137803e-15
4.422084166137803e-15
)
"out" 6.944122814392982e-08
"freq" 1.584893192461108e+03
"Xdut.X_PLL" (
3.999999999993803e-16
3.999999999993803e-16
)
"Xdut.X_VCO" (
0.000000000000000e+00
0.000000000000000e+00
)
"Xdut.X_REF" (
0.000000000000000e+00
0.000000000000000e+00
4.422084166136392e-15
4.422084166136392e-15
)
"out" 6.944122814391875e-08
"freq" 1.778279410038916e+03
"Xdut.X_PLL" (
3.999999999992198e-16
3.999999999992198e-16
)
"Xdut.X_VCO" (
0.000000000000000e+00
0.000000000000000e+00
)
"Xdut.X_REF" (
0.000000000000000e+00
0.000000000000000e+00
4.422084166134618e-15
4.422084166134618e-15
)
"out" 6.944122814390481e-08
"freq" 1.995262314968872e+03
"Xdut.X_PLL" (
3.999999999990177e-16
3.999999999990177e-16
)
"Xdut.X_VCO" (
0.000000000000000e+00
0.000000000000000e+00
)
"Xdut.X_REF" (
0.000000000000000e+00
0.000000000000000e+00
4.422084166132383e-15
4.422084166132383e-15
)
"out" 6.944122814388727e-08
"freq" 2.238721138568331e+03
"Xdut.X_PLL" (
3.999999999987635e-16
3.999999999987635e-16
)
"Xdut.X_VCO" (
0.000000000000000e+00
0.000000000000000e+00
)
"Xdut.X_REF" (
0.000000000000000e+00
0.000000000000000e+00
4.422084166129573e-15
4.422084166129573e-15
)
"out" 6.944122814386520e-08
"freq" 2.511886431509571e+03
"Xdut.X_PLL" (
3.999999999984433e-16
3.999999999984433e-16
)
"Xdut.X_VCO" (
0.000000000000000e+00
0.000000000000000e+00
)
"Xdut.X_REF" (
0.000000000000000e+00
0.000000000000000e+00
4.422084166126034e-15
4.422084166126034e-15
)
"out" 6.944122814383740e-08
"freq" 2.818382931264443e+03
"Xdut.X_PLL" (
3.999999999980401e-16
3.999999999980401e-16
)
"Xdut.X_VCO" (
0.000000000000000e+00
0.000000000000000e+00
)
"Xdut.X_REF" (
0.000000000000000e+00
0.000000000000000e+00
4.422084166121576e-15
4.422084166121576e-15
)
"out" 6.944122814380241e-08
"freq" 3.162277660168367e+03
"Xdut.X_PLL" (
3.999999999975327e-16
3.999999999975327e-16
)
"Xdut.X_VCO" (
0.000000000000000e+00
0.000000000000000e+00
)
"Xdut.X_REF" (
0.000000000000000e+00
0.000000000000000e+00
4.422084166115968e-15
4.422084166115968e-15
)
"out" 6.944122814375838e-08
"freq" 3.548133892335740e+03
"Xdut.X_PLL" (
3.999999999968937e-16
3.999999999968937e-16
)
"Xdut.X_VCO" (
0.000000000000000e+00
0.000000000000000e+00
)
"Xdut.X_REF" (
0.000000000000000e+00
0.000000000000000e+00
4.422084166108903e-15
4.422084166108903e-15
)
"out" 6.944122814370291e-08
"freq" 3.981071705534956e+03
"Xdut.X_PLL" (
3.999999999960895e-16
3.999999999960895e-16
)
"Xdut.X_VCO" (
0.000000000000000e+00
0.000000000000000e+00
)
"Xdut.X_REF" (
0.000000000000000e+00
0.000000000000000e+00
4.422084166100012e-15
4.422084166100012e-15
)
"out" 6.944122814363310e-08
"freq" 4.466835921509612e+03
"Xdut.X_PLL" (
3.999999999950770e-16
3.999999999950770e-16
)
"Xdut.X_VCO" (
0.000000000000000e+00
0.000000000000000e+00
)
"Xdut.X_REF" (
0.000000000000000e+00
0.000000000000000e+00
4.422084166088820e-15
4.422084166088820e-15
)
"out" 6.944122814354522e-08
"freq" 5.011872336272701e+03
"Xdut.X_PLL" (
3.999999999938023e-16
3.999999999938023e-16
)
"Xdut.X_VCO" (
0.000000000000000e+00
0.000000000000000e+00
)
"Xdut.X_REF" (
0.000000000000000e+00
0.000000000000000e+00
4.422084166074726e-15
4.422084166074726e-15
)
"out" 6.944122814343456e-08
"freq" 5.623413251903467e+03
"Xdut.X_PLL" (
3.999999999921974e-16
3.999999999921974e-16
)
"Xdut.X_VCO" (
0.000000000000000e+00
0.000000000000000e+00
)
"Xdut.X_REF" (
0.000000000000000e+00
0.000000000000000e+00
4.422084166056984e-15
4.422084166056984e-15
)
"out" 6.944122814329526e-08
"freq" 6.309573444801905e+03
"Xdut.X_PLL" (
3.999999999901771e-16
3.999999999901771e-16
)
"Xdut.X_VCO" (
0.000000000000000e+00
0.000000000000000e+00
)
"Xdut.X_REF" (
0.000000000000000e+00
0.000000000000000e+00
4.422084166034649e-15
4.422084166034649e-15
)
"out" 6.944122814311989e-08
"freq" 7.079457843841347e+03
"Xdut.X_PLL" (
3.999999999876338e-16
3.999999999876338e-16
)
"Xdut.X_VCO" (
0.000000000000000e+00
0.000000000000000e+00
)
"Xdut.X_REF" (
0.000000000000000e+00
0.000000000000000e+00
4.422084166006532e-15
4.422084166006532e-15
)
"out" 6.944122814289913e-08
"freq" 7.943282347242779e+03
"Xdut.X_PLL" (
3.999999999844318e-16
3.999999999844318e-16
)
"Xdut.X_VCO" (
0.000000000000000e+00
0.000000000000000e+00
)
"Xdut.X_REF" (
0.000000000000000e+00
0.000000000000000e+00
4.422084165971134e-15
4.422084165971134e-15
)
"out" 6.944122814262120e-08
"freq" 8.912509381337413e+03
"Xdut.X_PLL" (
3.999999999804008e-16
3.999999999804008e-16
)
"Xdut.X_VCO" (
0.000000000000000e+00
0.000000000000000e+00
)
"Xdut.X_REF" (
0.000000000000000e+00
0.000000000000000e+00
4.422084165926570e-15
4.422084165926570e-15
)
"out" 6.944122814227129e-08
"freq" 9.999999999999953e+03
"Xdut.X_PLL" (
3.999999999753260e-16
3.999999999753260e-16
)
"Xdut.X_VCO" (
0.000000000000000e+00
0.000000000000000e+00
)
"Xdut.X_REF" (
0.000000000000000e+00
0.000000000000000e+00
4.422084165870467e-15
4.422084165870467e-15
)
"out" 6.944122814183080e-08
"freq" 1.122018454301958e+04
"Xdut.X_PLL" (
3.999999999689374e-16
3.999999999689374e-16
)
"Xdut.X_VCO" (
0.000000000000000e+00
0.000000000000000e+00
)
"Xdut.X_REF" (
0.000000000000000e+00
0.000000000000000e+00
4.422084165799840e-15
4.422084165799840e-15
)
"out" 6.944122814127625e-08
"freq" 1.258925411794161e+04
"Xdut.X_PLL" (
3.999999999608943e-16
3.999999999608943e-16
)
"Xdut.X_VCO" (
0.000000000000000e+00
0.000000000000000e+00
)
"Xdut.X_REF" (
0.000000000000000e+00
0.000000000000000e+00
4.422084165710923e-15
4.422084165710923e-15
)
"out" 6.944122814057810e-08
"freq" 1.412537544622747e+04
"Xdut.X_PLL" (
3.999999999507690e-16
3.999999999507690e-16
)
"Xdut.X_VCO" (
0.000000000000000e+00
0.000000000000000e+00
)
"Xdut.X_REF" (
0.000000000000000e+00
0.000000000000000e+00
4.422084165598983e-15
4.422084165598983e-15
)
"out" 6.944122813969920e-08
"freq" 1.584893192461106e+04
"Xdut.X_PLL" (
3.999999999380217e-16
3.999999999380217e-16
)
"Xdut.X_VCO" (
0.000000000000000e+00
0.000000000000000e+00
)
"Xdut.X_REF" (
0.000000000000000e+00
0.000000000000000e+00
4.422084165458061e-15
4.422084165458061e-15
)
"out" 6.944122813859273e-08
"freq" 1.778279410038914e+04
"Xdut.X_PLL" (
3.999999999219741e-16
3.999999999219741e-16
)
"Xdut.X_VCO" (
0.000000000000000e+00
0.000000000000000e+00
)
"Xdut.X_REF" (
0.000000000000000e+00
0.000000000000000e+00
4.422084165280651e-15
4.422084165280651e-15
)
"out" 6.944122813719978e-08
"freq" 1.995262314968869e+04
"Xdut.X_PLL" (
3.999999999017711e-16
3.999999999017711e-16
)
"Xdut.X_VCO" (
0.000000000000000e+00
0.000000000000000e+00
)
"Xdut.X_REF" (
0.000000000000000e+00
0.000000000000000e+00
4.422084165057304e-15
4.422084165057304e-15
)
"out" 6.944122813544613e-08
"freq" 2.238721138568328e+04
"Xdut.X_PLL" (
3.999999998763370e-16
3.999999998763370e-16
)
"Xdut.X_VCO" (
0.000000000000000e+00
0.000000000000000e+00
)
"Xdut.X_REF" (
0.000000000000000e+00
0.000000000000000e+00
4.422084164776123e-15
4.422084164776123e-15
)
"out" 6.944122813323840e-08
"freq" 2.511886431509566e+04
"Xdut.X_PLL" (
3.999999998443176e-16
3.999999998443176e-16
)
"Xdut.X_VCO" (
0.000000000000000e+00
0.000000000000000e+00
)
"Xdut.X_REF" (
0.000000000000000e+00
0.000000000000000e+00
4.422084164422142e-15
4.422084164422142e-15
)
"out" 6.944122813045906e-08
"freq" 2.818382931264438e+04
"Xdut.X_PLL" (
3.999999998040074e-16
3.999999998040074e-16
)
"Xdut.X_VCO" (
0.000000000000000e+00
0.000000000000000e+00
)
"Xdut.X_REF" (
0.000000000000000e+00
0.000000000000000e+00
4.422084163976503e-15
4.422084163976503e-15
)
"out" 6.944122812696007e-08
"freq" 3.162277660168361e+04
"Xdut.X_PLL" (
3.999999997532599e-16
3.999999997532599e-16
)
"Xdut.X_VCO" (
0.000000000000000e+00
0.000000000000000e+00
)
"Xdut.X_REF" (
0.000000000000000e+00
0.000000000000000e+00
4.422084163415480e-15
4.422084163415480e-15
)
"out" 6.944122812255512e-08
"freq" 3.548133892335734e+04
"Xdut.X_PLL" (
3.999999996893726e-16
3.999999996893726e-16
)
"Xdut.X_VCO" (
0.000000000000000e+00
0.000000000000000e+00
)
"Xdut.X_REF" (
0.000000000000000e+00
0.000000000000000e+00
4.422084162709192e-15
4.422084162709192e-15
)
"out" 6.944122811700959e-08
"freq" 3.981071705534949e+04
"Xdut.X_PLL" (
3.999999996089433e-16
3.999999996089433e-16
)
"Xdut.X_VCO" (
0.000000000000000e+00
0.000000000000000e+00
)
"Xdut.X_REF" (
0.000000000000000e+00
0.000000000000000e+00
4.422084161820030e-15
4.422084161820030e-15
)
"out" 6.944122811002823e-08
"freq" 4.466835921509604e+04
"Xdut.X_PLL" (
3.999999995076888e-16
3.999999995076888e-16
)
"Xdut.X_VCO" (
0.000000000000000e+00
0.000000000000000e+00
)
"Xdut.X_REF" (
0.000000000000000e+00
0.000000000000000e+00
4.422084160700641e-15
4.422084160700641e-15
)
"out" 6.944122810123918e-08
"freq" 5.011872336272692e+04
"Xdut.X_PLL" (
3.999999993802168e-16
3.999999993802168e-16
)
"Xdut.X_VCO" (
0.000000000000000e+00
0.000000000000000e+00
)
"Xdut.X_REF" (
0.000000000000000e+00
0.000000000000000e+00
4.422084159291412e-15
4.422084159291412e-15
)
"out" 6.944122809017441e-08
"freq" 5.623413251903455e+04
"Xdut.X_PLL" (
3.999999992197393e-16
3.999999992197393e-16
)
"Xdut.X_VCO" (
0.000000000000000e+00
0.000000000000000e+00
)
"Xdut.X_REF" (
0.000000000000000e+00
0.000000000000000e+00
4.422084157517297e-15
4.422084157517297e-15
)
"out" 6.944122807624472e-08
"freq" 6.309573444801892e+04
"Xdut.X_PLL" (
3.999999990177099e-16
3.999999990177099e-16
)
"Xdut.X_VCO" (
0.000000000000000e+00
0.000000000000000e+00
)
"Xdut.X_REF" (
0.000000000000000e+00
0.000000000000000e+00
4.422084155283820e-15
4.422084155283820e-15
)
"out" 6.944122805870825e-08
"freq" 7.079457843841333e+04
"Xdut.X_PLL" (
3.999999987633701e-16
3.999999987633701e-16
)
"Xdut.X_VCO" (
0.000000000000000e+00
0.000000000000000e+00
)
"Xdut.X_REF" (
0.000000000000000e+00
0.000000000000000e+00
4.422084152472040e-15
4.422084152472040e-15
)
"out" 6.944122803663117e-08
"freq" 7.943282347242763e+04
"Xdut.X_PLL" (
3.999999984431753e-16
3.999999984431753e-16
)
"Xdut.X_VCO" (
0.000000000000000e+00
0.000000000000000e+00
)
"Xdut.X_REF" (
0.000000000000000e+00
0.000000000000000e+00
4.422084148932219e-15
4.422084148932219e-15
)
"out" 6.944122800883776e-08
"freq" 8.912509381337395e+04
"Xdut.X_PLL" (
3.999999980400737e-16
3.999999980400737e-16
)
"Xdut.X_VCO" (
0.000000000000000e+00
0.000000000000000e+00
)
"Xdut.X_REF" (
0.000000000000000e+00
0.000000000000000e+00
4.422084144475846e-15
4.422084144475846e-15
)
"out" 6.944122797384792e-08
"freq" 9.999999999999932e+04
"Xdut.X_PLL" (
3.999999975325989e-16
3.999999975325989e-16
)
"Xdut.X_VCO" (
0.000000000000000e+00
0.000000000000000e+00
)
"Xdut.X_REF" (
0.000000000000000e+00
0.000000000000000e+00
4.422084138865605e-15
4.422084138865605e-15
)
"out" 6.944122792979833e-08
"freq" 1.122018454301956e+05
"Xdut.X_PLL" (
3.999999968937263e-16
3.999999968937263e-16
)
"Xdut.X_VCO" (
0.000000000000000e+00
0.000000000000000e+00
)
"Xdut.X_REF" (
0.000000000000000e+00
0.000000000000000e+00
4.422084131802733e-15
4.422084131802733e-15
)
"out" 6.944122787434320e-08
"freq" 1.258925411794158e+05
"Xdut.X_PLL" (
3.999999960894328e-16
3.999999960894328e-16
)
"Xdut.X_VCO" (
0.000000000000000e+00
0.000000000000000e+00
)
"Xdut.X_REF" (
0.000000000000000e+00
0.000000000000000e+00
4.422084122911101e-15
4.422084122911101e-15
)
"out" 6.944122780452931e-08
"freq" 1.412537544622744e+05
"Xdut.X_PLL" (
3.999999950768877e-16
3.999999950768877e-16
)
"Xdut.X_VCO" (
0.000000000000000e+00
0.000000000000000e+00
)
"Xdut.X_REF" (
0.000000000000000e+00
0.000000000000000e+00
4.422084111717202e-15
4.422084111717202e-15
)
"out" 6.944122771663884e-08
"freq" 1.584893192461102e+05
"Xdut.X_PLL" (
3.999999938021688e-16
3.999999938021688e-16
)
"Xdut.X_VCO" (
0.000000000000000e+00
0.000000000000000e+00
)
"Xdut.X_REF" (
0.000000000000000e+00
0.000000000000000e+00
4.422084097624915e-15
4.422084097624915e-15
)
"out" 6.944122760599127e-08
"freq" 1.778279410038910e+05
"Xdut.X_PLL" (
3.999999921973928e-16
3.999999921973928e-16
)
"Xdut.X_VCO" (
0.000000000000000e+00
0.000000000000000e+00
)
"Xdut.X_REF" (
0.000000000000000e+00
0.000000000000000e+00
4.422084079883779e-15
4.422084079883779e-15
)
"out" 6.944122746669425e-08
"freq" 1.995262314968865e+05
"Xdut.X_PLL" (
3.999999901770995e-16
3.999999901770995e-16
)
"Xdut.X_VCO" (
0.000000000000000e+00
0.000000000000000e+00
)
"Xdut.X_REF" (
0.000000000000000e+00
0.000000000000000e+00
4.422084057549012e-15
4.422084057549012e-15
)
"out" 6.944122729132969e-08
"freq" 2.238721138568323e+05
"Xdut.X_PLL" (
3.999999876337013e-16
3.999999876337013e-16
)
"Xdut.X_VCO" (
0.000000000000000e+00
0.000000000000000e+00
)
"Xdut.X_REF" (
0.000000000000000e+00
0.000000000000000e+00
4.422084029431209e-15
4.422084029431209e-15
)
"out" 6.944122707055882e-08
"freq" 2.511886431509561e+05
"Xdut.X_PLL" (
3.999999844317522e-16
3.999999844317522e-16
)
"Xdut.X_VCO" (
0.000000000000000e+00
0.000000000000000e+00
)
"Xdut.X_REF" (
0.000000000000000e+00
0.000000000000000e+00
4.422083994032988e-15
4.422083994032988e-15
)
"out" 6.944122679262470e-08
"freq" 2.818382931264432e+05
"Xdut.X_PLL" (
3.999999804007374e-16
3.999999804007374e-16
)
"Xdut.X_VCO" (
0.000000000000000e+00
0.000000000000000e+00
)
"Xdut.X_REF" (
0.000000000000000e+00
0.000000000000000e+00
4.422083949469271e-15
4.422083949469271e-15
)
"out" 6.944122644272643e-08
"freq" 3.162277660168355e+05
"Xdut.X_PLL" (
3.999999753259905e-16
3.999999753259905e-16
)
"Xdut.X_VCO" (
0.000000000000000e+00
0.000000000000000e+00
)
"Xdut.X_REF" (
0.000000000000000e+00
0.000000000000000e+00
4.422083893366876e-15
4.422083893366876e-15
)
"out" 6.944122600223060e-08
"freq" 3.548133892335726e+05
"Xdut.X_PLL" (
3.999999689372629e-16
3.999999689372629e-16
)
"Xdut.X_VCO" (
0.000000000000000e+00
0.000000000000000e+00
)
"Xdut.X_REF" (
0.000000000000000e+00
0.000000000000000e+00
4.422083822738149e-15
4.422083822738149e-15
)
"out" 6.944122544767922e-08
"freq" 3.981071705534941e+05
"Xdut.X_PLL" (
3.999999608943319e-16
3.999999608943319e-16
)
"Xdut.X_VCO" (
0.000000000000000e+00
0.000000000000000e+00
)
"Xdut.X_REF" (
0.000000000000000e+00
0.000000000000000e+00
4.422083733821854e-15
4.422083733821854e-15
)
"out" 6.944122474954042e-08
"freq" 4.466835921509595e+05
"Xdut.X_PLL" (
3.999999507688817e-16
3.999999507688817e-16
)
"Xdut.X_VCO" (
0.000000000000000e+00
0.000000000000000e+00
)
"Xdut.X_REF" (
0.000000000000000e+00
0.000000000000000e+00
4.422083621882872e-15
4.422083621882872e-15
)
"out" 6.944122387063575e-08
"freq" 5.011872336272682e+05
"Xdut.X_PLL" (
3.999999380216962e-16
3.999999380216962e-16
)
"Xdut.X_VCO" (
0.000000000000000e+00
0.000000000000000e+00
)
"Xdut.X_REF" (
0.000000000000000e+00
0.000000000000000e+00
4.422083480960054e-15
4.422083480960054e-15
)
"out" 6.944122276416041e-08
"freq" 5.623413251903445e+05
"Xdut.X_PLL" (
3.999999219739416e-16
3.999999219739416e-16
)
"Xdut.X_VCO" (
0.000000000000000e+00
0.000000000000000e+00
)
"Xdut.X_REF" (
0.000000000000000e+00
0.000000000000000e+00
4.422083303548749e-15
4.422083303548749e-15
)
"out" 6.944122137119055e-08
"freq" 6.309573444801880e+05
"Xdut.X_PLL" (
3.999999017710171e-16
3.999999017710171e-16
)
"Xdut.X_VCO" (
0.000000000000000e+00
0.000000000000000e+00
)
"Xdut.X_REF" (
0.000000000000000e+00
0.000000000000000e+00
4.422083080201168e-15
4.422083080201168e-15
)
"out" 6.944121961754550e-08
"freq" 7.079457843841319e+05
"Xdut.X_PLL" (
3.999998763370451e-16
3.999998763370451e-16
)
"Xdut.X_VCO" (
0.000000000000000e+00
0.000000000000000e+00
)
"Xdut.X_REF" (
0.000000000000000e+00
0.000000000000000e+00
4.422082799023257e-15
4.422082799023257e-15
)
"out" 6.944121740983738e-08
"freq" 7.943282347242747e+05
"Xdut.X_PLL" (
3.999998443175760e-16
3.999998443175760e-16
)
"Xdut.X_VCO" (
0.000000000000000e+00
0.000000000000000e+00
)
"Xdut.X_REF" (
0.000000000000000e+00
0.000000000000000e+00
4.422082445041289e-15
4.422082445041289e-15
)
"out" 6.944121463049783e-08
"freq" 8.912509381337379e+05
"Xdut.X_PLL" (
3.999998040074599e-16
3.999998040074599e-16
)
"Xdut.X_VCO" (
0.000000000000000e+00
0.000000000000000e+00
)
"Xdut.X_REF" (
0.000000000000000e+00
0.000000000000000e+00
4.422081999404473e-15
4.422081999404473e-15
)
"out" 6.944121113151709e-08
"freq" 9.999999999999914e+05
"Xdut.X_PLL" (
3.999997532600422e-16
3.999997532600422e-16
)
"Xdut.X_VCO" (
0.000000000000000e+00
0.000000000000000e+00
)
"Xdut.X_REF" (
0.000000000000000e+00
0.000000000000000e+00